data_28862
_audit_creation_method 'generated by SIMILAR 3.0'
_audit_creation_date	1970-04-11
_audit_update_record	1970-04-11
_database_code_ICSD	28862
_journal_coden_ASTM	JACSAT
_journal_year	1951
_journal_volume	73
_journal_page_first	5643
_journal_page_last	5646
_publ_author_name	'Straumanis,, M E, Aka, E Z'
_publ_section_title
;
Precision Determination of Lattice Parameter, Coefficient of Thermal

Expansion and Atomic Weight of Carbon in Diamond
;
_chemical_formula_sum	'C'
_chemical_formula_structural	'C'
_chemical_name_systematic
;
Carbon
;
_chemical_name_mineral
;
Diamond
;
_chemical_compound_source
;
from Belgian Congo
;
_chemical_formula_weight	12.011
_cell_length_a	 3.5625(0)
_cell_length_b	 3.5625(0)
_cell_length_c	 3.5625(0)
_cell_angle_alpha	90.000
_cell_angle_beta	90.000
_cell_angle_gamma	90.000
_cell_volume	45.2(0)
_cell_formula_units_Z	8
_symmetry_int_tables_number	227
_symmetry_space_group_name_H-M	'F d -3 m'
_symmetry_space_group_name_Hall	'F_4d_2_3_-1d'

loop_
_symmetry_equiv_pos_site_id
_symmetry_equiv_pos_as_xyz
1 x,y,z
2 1/4-x,1/4-y,1/4-z
3 1/4-y,1/4+x,1/4+z
4 -x,-y,z
5 1/4+y,1/4-x,1/4+z
6 1/4+x,1/4-z,1/4+y
7 x,-y,-z
8 1/4+x,1/4+z,1/4-y
9 1/4+z,1/4+y,1/4-x
10 -x,y,-z
11 1/4-z,1/4+y,1/4+x
12 y,-x,-z
13 -y,x,-z
14 -x,z,-y
15 -x,-z,y
16 -z,-y,x
17 z,-y,-x
18 z,x,y
19 y,z,x
20 -y,-z,x
21 z,-x,-y
22 -y,z,-x
23 -z,-x,y
24 -z,x,-y
25 y,-z,-x
26 1/4-z,1/4-x,1/4-y
27 1/4-y,1/4-z,1/4-x
28 1/4+y,1/4+z,1/4-x
29 1/4-z,1/4+x,1/4+y
30 1/4+y,1/4-z,1/4+x
31 1/4+z,1/4+x,1/4-y
32 1/4+z,1/4-x,1/4+y
33 1/4-y,1/4+z,1/4+x
34 1/4+y,1/4+x,1/4-z
35 1/4-y,1/4-x,1/4-z
36 1/4-x,1/4+z,1/4+y
37 1/4-x,1/4-z,1/4-y
38 1/4+z,1/4-y,1/4+x
39 1/4-z,1/4-y,1/4-x
40 1/4+x,1/4+y,1/4-z
41 1/4-x,1/4+y,1/4+z
42 1/4+x,1/4-y,1/4+z
43 -y,-x,z
44 y,x,z
45 x,-z,-y
46 x,z,y
47 -z,y,-x
48 z,y,x
49 x,1/2+y,1/2+z
50 1/4-x,3/4-y,3/4-z
51 1/4-y,3/4+x,3/4+z
52 -x,1/2-y,1/2+z
53 1/4+y,3/4-x,3/4+z
54 1/4+x,3/4-z,3/4+y
55 x,1/2-y,1/2-z
56 1/4+x,3/4+z,3/4-y
57 1/4+z,3/4+y,3/4-x
58 -x,1/2+y,1/2-z
59 1/4-z,3/4+y,3/4+x
60 y,1/2-x,1/2-z
61 -y,1/2+x,1/2-z
62 -x,1/2+z,1/2-y
63 -x,1/2-z,1/2+y
64 -z,1/2-y,1/2+x
65 z,1/2-y,1/2-x
66 z,1/2+x,1/2+y
67 y,1/2+z,1/2+x
68 -y,1/2-z,1/2+x
69 z,1/2-x,1/2-y
70 -y,1/2+z,1/2-x
71 -z,1/2-x,1/2+y
72 -z,1/2+x,1/2-y
73 y,1/2-z,1/2-x
74 1/4-z,3/4-x,3/4-y
75 1/4-y,3/4-z,3/4-x
76 1/4+y,3/4+z,3/4-x
77 1/4-z,3/4+x,3/4+y
78 1/4+y,3/4-z,3/4+x
79 1/4+z,3/4+x,3/4-y
80 1/4+z,3/4-x,3/4+y
81 1/4-y,3/4+z,3/4+x
82 1/4+y,3/4+x,3/4-z
83 1/4-y,3/4-x,3/4-z
84 1/4-x,3/4+z,3/4+y
85 1/4-x,3/4-z,3/4-y
86 1/4+z,3/4-y,3/4+x
87 1/4-z,3/4-y,3/4-x
88 1/4+x,3/4+y,3/4-z
89 1/4-x,3/4+y,3/4+z
90 1/4+x,3/4-y,3/4+z
91 -y,1/2-x,1/2+z
92 y,1/2+x,1/2+z
93 x,1/2-z,1/2-y
94 x,1/2+z,1/2+y
95 -z,1/2+y,1/2-x
96 z,1/2+y,1/2+x
97 1/2+x,y,1/2+z
98 3/4-x,1/4-y,3/4-z
99 3/4-y,1/4+x,3/4+z
100 1/2-x,-y,1/2+z
101 3/4+y,1/4-x,3/4+z
102 3/4+x,1/4-z,3/4+y
103 1/2+x,-y,1/2-z
104 3/4+x,1/4+z,3/4-y
105 3/4+z,1/4+y,3/4-x
106 1/2-x,y,1/2-z
107 3/4-z,1/4+y,3/4+x
108 1/2+y,-x,1/2-z
109 1/2-y,x,1/2-z
110 1/2-x,z,1/2-y
111 1/2-x,-z,1/2+y
112 1/2-z,-y,1/2+x
113 1/2+z,-y,1/2-x
114 1/2+z,x,1/2+y
115 1/2+y,z,1/2+x
116 1/2-y,-z,1/2+x
117 1/2+z,-x,1/2-y
118 1/2-y,z,1/2-x
119 1/2-z,-x,1/2+y
120 1/2-z,x,1/2-y
121 1/2+y,-z,1/2-x
122 3/4-z,1/4-x,3/4-y
123 3/4-y,1/4-z,3/4-x
124 3/4+y,1/4+z,3/4-x
125 3/4-z,1/4+x,3/4+y
126 3/4+y,1/4-z,3/4+x
127 3/4+z,1/4+x,3/4-y
128 3/4+z,1/4-x,3/4+y
129 3/4-y,1/4+z,3/4+x
130 3/4+y,1/4+x,3/4-z
131 3/4-y,1/4-x,3/4-z
132 3/4-x,1/4+z,3/4+y
133 3/4-x,1/4-z,3/4-y
134 3/4+z,1/4-y,3/4+x
135 3/4-z,1/4-y,3/4-x
136 3/4+x,1/4+y,3/4-z
137 3/4-x,1/4+y,3/4+z
138 3/4+x,1/4-y,3/4+z
139 1/2-y,-x,1/2+z
140 1/2+y,x,1/2+z
141 1/2+x,-z,1/2-y
142 1/2+x,z,1/2+y
143 1/2-z,y,1/2-x
144 1/2+z,y,1/2+x
145 1/2+x,1/2+y,z
146 3/4-x,3/4-y,1/4-z
147 3/4-y,3/4+x,1/4+z
148 1/2-x,1/2-y,z
149 3/4+y,3/4-x,1/4+z
150 3/4+x,3/4-z,1/4+y
151 1/2+x,1/2-y,-z
152 3/4+x,3/4+z,1/4-y
153 3/4+z,3/4+y,1/4-x
154 1/2-x,1/2+y,-z
155 3/4-z,3/4+y,1/4+x
156 1/2+y,1/2-x,-z
157 1/2-y,1/2+x,-z
158 1/2-x,1/2+z,-y
159 1/2-x,1/2-z,y
160 1/2-z,1/2-y,x
161 1/2+z,1/2-y,-x
162 1/2+z,1/2+x,y
163 1/2+y,1/2+z,x
164 1/2-y,1/2-z,x
165 1/2+z,1/2-x,-y
166 1/2-y,1/2+z,-x
167 1/2-z,1/2-x,y
168 1/2-z,1/2+x,-y
169 1/2+y,1/2-z,-x
170 3/4-z,3/4-x,1/4-y
171 3/4-y,3/4-z,1/4-x
172 3/4+y,3/4+z,1/4-x
173 3/4-z,3/4+x,1/4+y
174 3/4+y,3/4-z,1/4+x
175 3/4+z,3/4+x,1/4-y
176 3/4+z,3/4-x,1/4+y
177 3/4-y,3/4+z,1/4+x
178 3/4+y,3/4+x,1/4-z
179 3/4-y,3/4-x,1/4-z
180 3/4-x,3/4+z,1/4+y
181 3/4-x,3/4-z,1/4-y
182 3/4+z,3/4-y,1/4+x
183 3/4-z,3/4-y,1/4-x
184 3/4+x,3/4+y,1/4-z
185 3/4-x,3/4+y,1/4+z
186 3/4+x,3/4-y,1/4+z
187 1/2-y,1/2-x,z
188 1/2+y,1/2+x,z
189 1/2+x,1/2-z,-y
190 1/2+x,1/2+z,y
191 1/2-z,1/2+y,-x
192 1/2+z,1/2+y,x

loop_
_atom_type_symbol
_atom_type_oxidation_number
_atom_type_radius_bond
C+0	0.000	0.860


loop_
_atom_site_label
_atom_site_type_symbol
_atom_site_fract_x
_atom_site_fract_y
_atom_site_fract_z
_atom_site_occupancy
_atom_site_symmetry_multiplicity
_atom_site_Wyckoff_symbol
_atom_site_attached_hydrogens
_atom_site_calc_flag
_atom_site_thermal_displace_type
_atom_site_u_iso_or_equiv
C1 C+0  0.0000  0.0000  0.0000  1.000 8 a ? d ? ?

