data_31170
_audit_creation_method	'Created with Diamond (www.crystalimpact.com)'
_audit_creation_date	70-04-11
_audit_update_record	70-04-11
_database_code_ICSD	31170
_journal_coden_ASTM	ZEPYAA
_journal_year	1924
_journal_volume	25
_journal_page_first	317
_journal_page_last	337
loop_
_publ_author_name
'Hassel,'
'O,'

_publ_section_title
;
Ueber die Kristallstruktur des Graphits.
;
_chemical_formula_sum	'C2'
_chemical_formula_structural	'C'
_chemical_name_systematic
;
Carbon
;
_chemical_name_mineral
;
Graphite
;
_chemical_formula_weight	24.022
_cell_length_a	 2.4700
_cell_length_b	 2.4700
_cell_length_c	 6.7900
_cell_angle_alpha	90.000
_cell_angle_beta	90.000
_cell_angle_gamma	120.000
_cell_volume	35.9
_cell_formula_units_Z	4
_symmetry_int_tables_number	186
_symmetry_space_group_name_H-M	'P 63 m c'
_symmetry_space_group_name_Hall	'P_6c_-2c'

loop_
_atom_type_symbol
_atom_type_oxidation_number
_atom_type_radius_bond
C+0	0.000	0.860


loop_
_atom_site_label
_atom_site_type_symbol
_atom_site_fract_x
_atom_site_fract_y
_atom_site_fract_z
_atom_site_occupancy
_atom_site_symmetry_multiplicity
_atom_site_Wyckoff_symbol
_atom_site_attached_hydrogens
_atom_site_calc_flag
_atom_site_thermal_displace_type
_atom_site_u_iso_or_equiv
C1 C+0  0.0000  0.0000  0.0000  1.000 2 a ? d ? ?
C2 C+0  0.3333  0.6667  0.0050  1.000 2 b ? d ? ?

