data_28948
_audit_creation_method	'Created with Diamond (www.crystalimpact.com)'
_audit_creation_date	70-04-11
_audit_update_record	70-04-11
_database_code_ICSD	28948
_journal_coden_ASTM	JACSAT
_journal_year	1954
_journal_volume	76
_journal_page_first	366
_journal_page_last	369
loop_
_publ_author_name
'Barrett,'
'W, T'
'Wallace,'
'W, E'

_publ_section_title
;
Studies of Na Cl - K Cl Solid Solutions. I. Heats of Formation, Lattice

Spacings, Densities, Schottky Defects and Mutual Solubilities
;
_chemical_formula_sum	'Cl Na'
_chemical_formula_structural	'Na Cl'
_chemical_name_systematic
;
Sodium chloride
;
_chemical_name_mineral
;
Halite
;
_cell_length_a	 5.6280(5)
_cell_length_b	 5.6280(5)
_cell_length_c	 5.6280(5)
_cell_angle_alpha	90.000
_cell_angle_beta	90.000
_cell_angle_gamma	90.000
_cell_volume	179.4(0)
_cell_formula_units_Z	4
_symmetry_int_tables_number	225
_symmetry_space_group_name_H-M	'F m -3 m'
_symmetry_space_group_name_Hall	'-F_4_2_3'

loop_
_atom_type_symbol
_atom_type_oxidation_number
_atom_type_radius_bond
Na+0	1.000	0.970
Cl+0	-1.000	1.810


loop_
_atom_site_label
_atom_site_type_symbol
_atom_site_fract_x
_atom_site_fract_y
_atom_site_fract_z
_atom_site_occupancy
_atom_site_symmetry_multiplicity
_atom_site_Wyckoff_symbol
_atom_site_attached_hydrogens
_atom_site_calc_flag
_atom_site_thermal_displace_type
_atom_site_u_iso_or_equiv
Na1 Na+0  0.0000  0.0000  0.0000  1.000 4 a ? d ? ?
Cl1 Cl+0  0.5000  0.5000  0.5000  1.000 4 b ? d ? ?

